
*************** JDFTx 1.7.0 (git hash 29f622bc) ***************

Start date and time: Tue Apr 30 16:12:23 2024
Executable /software/groups/ping_group/shared/apps/jdftx-1.7.0/build/jdftx with command-line: -i scf.in
Running on hosts (process indices):  spark-i153 (0-31)
Divided in process groups (process indices):  0 (0)  1 (1)  2 (2)  3 (3)  4 (4)  5 (5)  6 (6)  7 (7)  8 (8)  9 (9)  10 (10)  11 (11)  12 (12)  13 (13)  14 (14)  15 (15)  16 (16)  17 (17)  18 (18)  19 (19)  20 (20)  21 (21)  22 (22)  23 (23)  24 (24)  25 (25)  26 (26)  27 (27)  28 (28)  29 (29)  30 (30)  31 (31)
Resource initialization completed at t[s]:      0.00
Run totals: 32 processes, 40 threads, 0 GPUs


Input parsed successfully to the following command list (including defaults):

basis kpoint-dependent
converge-empty-states yes
coords-type Lattice
core-overlap-check vector
coulomb-interaction Periodic
davidson-band-ratio 1.1
dump End State BandEigs EigStats Momenta R Berry Kpoints
dump Init Symmetries
dump-name totalE.$VAR
elec-cutoff 17
elec-eigen-algo Davidson
elec-ex-corr mgga-x-scan mgga-c-scan
elec-n-bands 10
electronic-minimize  \
	dirUpdateScheme      FletcherReeves \
	linminMethod         DirUpdateRecommended \
	nIterations          100 \
	history              15 \
	knormThreshold       0 \
	energyDiffThreshold  1e-08 \
	nEnergyDiff          2 \
	alphaTstart          1 \
	alphaTmin            1e-10 \
	updateTestStepSize   yes \
	alphaTreduceFactor   0.1 \
	alphaTincreaseFactor 3 \
	nAlphaAdjustMax      3 \
	wolfeEnergy          0.0001 \
	wolfeGradient        0.9 \
	fdTest               no
electronic-scf  \
	nIterations	50 \
	energyDiffThreshold	1e-11 \
	residualThreshold	1e-07 \
	mixFraction	0.5 \
	qMetric	0.8 \
	history	10 \
	nEigSteps	2 \
	eigDiffThreshold	1e-08 \
	mixedVariable	Density \
	qKerker	0.8 \
	qKappa	-1 \
	verbose	no \
	mixFractionMag	1.5
exchange-regularization WignerSeitzTruncated
fluid None
fluid-ex-corr (null) lda-PZ
fluid-gummel-loop 10 1.000000e-05
fluid-minimize  \
	dirUpdateScheme      PolakRibiere \
	linminMethod         DirUpdateRecommended \
	nIterations          100 \
	history              15 \
	knormThreshold       0 \
	energyDiffThreshold  0 \
	nEnergyDiff          2 \
	alphaTstart          1 \
	alphaTmin            1e-10 \
	updateTestStepSize   yes \
	alphaTreduceFactor   0.1 \
	alphaTincreaseFactor 3 \
	nAlphaAdjustMax      3 \
	wolfeEnergy          0.0001 \
	wolfeGradient        0.9 \
	fdTest               no
fluid-solvent H2O 55.338 ScalarEOS \
	epsBulk 78.4 \
	pMol 0.92466 \
	epsInf 1.77 \
	Pvap 1.06736e-10 \
	sigmaBulk 4.62e-05 \
	Rvdw 2.61727 \
	Res 1.42 \
	tauNuc 343133 \
	poleEl 15 7 1
forces-output-coords Positions
ion Ga   0.000000000000000   0.000000000000000   0.000000000000000 0
ion As   0.250000000000000   0.250000000000000   0.250000000000000 0
ion-species Ga_nv3_nocorecorr.upf
ion-species As_nv5_nocorecorr.upf
ion-width 0
ionic-minimize  \
	dirUpdateScheme      L-BFGS \
	linminMethod         DirUpdateRecommended \
	nIterations          0 \
	history              15 \
	knormThreshold       0.0001 \
	energyDiffThreshold  1e-06 \
	nEnergyDiff          2 \
	alphaTstart          1 \
	alphaTmin            1e-10 \
	updateTestStepSize   yes \
	alphaTreduceFactor   0.1 \
	alphaTincreaseFactor 3 \
	nAlphaAdjustMax      3 \
	wolfeEnergy          0.0001 \
	wolfeGradient        0.9 \
	fdTest               no
kpoint   0.000000000000   0.000000000000   0.000000000000  1.00000000000000
kpoint-folding 8 8 8 
latt-move-scale 1 1 1
latt-scale 1 1 1 
lattice Face-Centered Cubic 10.6829
lattice-minimize  \
	dirUpdateScheme      L-BFGS \
	linminMethod         DirUpdateRecommended \
	nIterations          0 \
	history              15 \
	knormThreshold       0 \
	energyDiffThreshold  1e-06 \
	nEnergyDiff          2 \
	alphaTstart          1 \
	alphaTmin            1e-10 \
	updateTestStepSize   yes \
	alphaTreduceFactor   0.1 \
	alphaTincreaseFactor 3 \
	nAlphaAdjustMax      3 \
	wolfeEnergy          0.0001 \
	wolfeGradient        0.9 \
	fdTest               no
lcao-params -1 1e-06 0.001
pcm-variant GLSSA13
spintype spin-orbit
subspace-rotation-factor 1 yes
symmetries none
symmetry-threshold 0.0001


Applied RMS atom displacement 0 bohrs to make symmetries exact.

---------- Initializing the Grid ----------
R = 
[            0      5.34145      5.34145  ]
[      5.34145            0      5.34145  ]
[      5.34145      5.34145            0  ]
unit cell volume = 304.795
G =
[  -0.588154   0.588154   0.588154  ]
[   0.588154  -0.588154   0.588154  ]
[   0.588154   0.588154  -0.588154  ]
Minimum fftbox size, Smin = [  32  32  32  ]
Chosen fftbox size, S = [  32  32  32  ]

---------- Exchange Correlation functional ----------
Initialized LibXC exchange functional 'SCAN exchange of Sun, Ruzsinszky, and Perdew'
Initialized LibXC correlation functional 'SCAN correlation of Sun, Ruzsinszky, and Perdew'

---------- Setting up pseudopotentials ----------
Width of ionic core gaussian charges (only for fluid interactions / plotting) set to 0

Reading pseudopotential file 'Ga_nv3_nocorecorr.upf':
  'Ga' pseudopotential, 'PBE' functional
  Generated using ONCVPSP code by D. R. Hamann
  Author: anonymous  Date: 200814.
  3 valence electrons, 3 orbitals, 8 projectors, 1926 radial grid points, with lMax = 2
  Transforming local potential to a uniform radial grid of dG=0.02 with 1566 points.
  Transforming nonlocal projectors to a uniform radial grid of dG=0.02 with 399 points.
    4S    l: 0   occupation:  2.0   eigenvalue: -0.328808
    4P    l: 1   occupation:  0.7   eigenvalue: -0.093403
    4P    l: 1   occupation:  0.3   eigenvalue: -0.097652
  Transforming atomic orbitals to a uniform radial grid of dG=0.02 with 399 points.
  Core radius for overlap checks: 2.08 bohrs.

Reading pseudopotential file 'As_nv5_nocorecorr.upf':
  'As' pseudopotential, 'PBE' functional
  Generated using ONCVPSP code by D. R. Hamann
  Author: anonymous  Date: 200814.
  5 valence electrons, 3 orbitals, 8 projectors, 1358 radial grid points, with lMax = 2
  Transforming local potential to a uniform radial grid of dG=0.02 with 1566 points.
  Transforming nonlocal projectors to a uniform radial grid of dG=0.02 with 399 points.
    4S    l: 0   occupation:  2.0   eigenvalue: -0.532523
    4P    l: 1   occupation:  2.0   eigenvalue: -0.187649
    4P    l: 1   occupation:  1.0   eigenvalue: -0.197670
  Transforming atomic orbitals to a uniform radial grid of dG=0.02 with 399 points.
  Core radius for overlap checks: 2.07 bohrs.

Initialized 2 species with 2 total atoms.

Folded 1 k-points by 8x8x8 to 512 k-points.

---------- Setting up k-points, bands, fillings ----------
No reducable k-points. 
Computing the number of bands and number of electrons
Calculating initial fillings.
nElectrons:   8.000000   nBands: 10   nStates: 512

----- Setting up reduced wavefunction bases (one per k-point) -----
average nbasis = 1018.912 , ideal nbasis = 1020.410

---------- Setting up ewald sum ----------
Optimum gaussian width for ewald sums = 2.425994 bohr.
Real space sum over 1331 unit cells with max indices [  5  5  5  ]
Reciprocal space sum over 2197 terms with max indices [  6  6  6  ]

---------- Allocating electronic variables ----------
Initializing wave functions:  linear combination of atomic orbitals
Initializing semi-local functional for LCAO:
Initalized PBE GGA exchange.
Initalized PBE GGA correlation.
Ga pseudo-atom occupations:   s ( 2 )  p- ( 1 )  p+ ( 0 )
As pseudo-atom occupations:   s ( 2 )  p- ( 2 )  p+ ( 1 )
	FillingsUpdate:  mu: +0.203943186  nElectrons: 8.000000
LCAOMinimize: Iter:   0  Etot: -8.5199630906761108  |grad|_K:  2.831e-04  alpha:  1.000e+00
	FillingsUpdate:  mu: +0.197792527  nElectrons: 8.000000
LCAOMinimize: Iter:   1  Etot: -8.5231662695242587  |grad|_K:  4.739e-06  alpha:  5.309e-01  linmin: -3.470e-01  cgtest:  4.408e-01  t[s]:      3.36
LCAOMinimize: Encountered beta<0, resetting CG.
	FillingsUpdate:  mu: +0.197777525  nElectrons: 8.000000
LCAOMinimize: Iter:   2  Etot: -8.5231676815100528  |grad|_K:  1.296e-06  alpha:  8.495e-01  linmin: -1.507e-03  cgtest:  3.864e-03  t[s]:      4.47
	FillingsUpdate:  mu: +0.197810281  nElectrons: 8.000000
LCAOMinimize: Iter:   3  Etot: -8.5231677572836073  |grad|_K:  5.494e-08  alpha:  6.091e-01  linmin: -3.254e-04  cgtest: -2.516e-02  t[s]:      5.59
LCAOMinimize: None of the convergence criteria satisfied after 3 iterations.


Dumping 'totalE.sym' ... done

---- Citations for features of the code used in this run ----

   Software package:
      R. Sundararaman, K. Letchworth-Weaver, K.A. Schwarz, D. Gunceler, Y. Ozhabes and T.A. Arias, 'JDFTx: software for joint density-functional theory', SoftwareX 6, 278 (2017)

   LibXC library of exchange-correlation functions:
      M. A. L. Marques, M. J. T. Oliveira and T. Burnus, Comput. Phys. Commun. 183, 2272 (2012)

   SCAN exchange of Sun, Ruzsinszky, and Perdew exchange functional:
   SCAN correlation of Sun, Ruzsinszky, and Perdew correlation functional:
      J. Sun, A. Ruzsinszky, and J. P. Perdew.,  Phys. Rev. Lett. 115, 036402 (2015)

   gga-PBE exchange-correlation functional:
      J.P. Perdew, K. Burke and M. Ernzerhof, Phys. Rev. Lett. 77, 3865 (1996)

This list may not be complete. Please suggest additional citations or
report any other bugs at https://github.com/shankar1729/jdftx/issues

Initialization completed successfully at t[s]:      5.75


-------- Electronic minimization -----------
Will mix electronic and kinetic density at each iteration.
SCF: Cycle:  0   Etot: -8.558528251469928   dEtot: -3.756e-02   |Residual|: 4.567e-02   |deigs|: 2.235e-02  t[s]:     12.45
SCF: Cycle:  1   Etot: -8.559395612533054   dEtot: -8.674e-04   |Residual|: 3.004e-02   |deigs|: 3.087e-03  t[s]:     17.33
SCF: Cycle:  2   Etot: -8.559679974249155   dEtot: -2.844e-04   |Residual|: 7.032e-03   |deigs|: 6.146e-03  t[s]:     22.10
SCF: Cycle:  3   Etot: -8.559691606205227   dEtot: -1.163e-05   |Residual|: 3.065e-03   |deigs|: 1.376e-03  t[s]:     26.01
SCF: Cycle:  4   Etot: -8.559697223327007   dEtot: -5.617e-06   |Residual|: 7.549e-04   |deigs|: 3.873e-04  t[s]:     29.32
SCF: Cycle:  5   Etot: -8.559698471153975   dEtot: -1.248e-06   |Residual|: 2.043e-04   |deigs|: 1.201e-04  t[s]:     32.64
SCF: Cycle:  6   Etot: -8.559698887879561   dEtot: -4.167e-07   |Residual|: 1.434e-04   |deigs|: 4.789e-05  t[s]:     36.16
SCF: Cycle:  7   Etot: -8.559699016102327   dEtot: -1.282e-07   |Residual|: 4.887e-05   |deigs|: 4.695e-05  t[s]:     39.82
SCF: Cycle:  8   Etot: -8.559699057523666   dEtot: -4.142e-08   |Residual|: 2.285e-05   |deigs|: 3.024e-05  t[s]:     43.33
SCF: Cycle:  9   Etot: -8.559699070771986   dEtot: -1.325e-08   |Residual|: 3.515e-06   |deigs|: 3.103e-05  t[s]:     47.04
SCF: Cycle: 10   Etot: -8.559699075000612   dEtot: -4.229e-09   |Residual|: 3.866e-06   |deigs|: 2.841e-05  t[s]:     50.93
SCF: Cycle: 11   Etot: -8.559699076294226   dEtot: -1.294e-09   |Residual|: 2.692e-06   |deigs|: 1.929e-05  t[s]:     54.56
SCF: Cycle: 12   Etot: -8.559699076753336   dEtot: -4.591e-10   |Residual|: 1.427e-06   |deigs|: 2.957e-05  t[s]:     58.37
SCF: Cycle: 13   Etot: -8.559699076873923   dEtot: -1.206e-10   |Residual|: 5.187e-07   |deigs|: 1.655e-05  t[s]:     61.87
SCF: Cycle: 14   Etot: -8.559699076926591   dEtot: -5.267e-11   |Residual|: 2.099e-07   |deigs|: 1.736e-05  t[s]:     66.04
SCF: Cycle: 15   Etot: -8.559699076938308   dEtot: -1.172e-11   |Residual|: 1.260e-07   |deigs|: 1.012e-05  t[s]:     69.35
SCF: Cycle: 16   Etot: -8.559699076943858   dEtot: -5.549e-12   |Residual|: 8.963e-08   |deigs|: 1.279e-05  t[s]:     73.26
SCF: Cycle: 17   Etot: -8.559699076944810   dEtot: -9.521e-13   |Residual|: 1.070e-07   |deigs|: 6.705e-06  t[s]:     76.19
SCF: Converged (|Delta E|<1.000000e-11 for 2 iters).

Setting wave functions to eigenvectors of Hamiltonian
Converging empty states (this may take a while): |deigs|: 2.666e-04

# Ionic positions in lattice coordinates:
ion Ga   0.000000000000000   0.000000000000000   0.000000000000000 0
ion As   0.250000000000000   0.250000000000000   0.250000000000000 0

# Forces in Lattice coordinates:
force Ga  -0.000001573135607  -0.000000701341666   0.000001083563387 0
force As   0.000000010669524   0.000000007221303  -0.000000031477698 0

# Energy components:
   Eewald =       -8.4220291129144371
       EH =        0.7941880196170495
     Eloc =       -3.3315556427379316
      Enl =        1.6672438928630267
      Exc =       -2.4106287329660923
       KE =        3.1430824991935760
-------------------------------------
     Etot =       -8.5596990769448098

IonicMinimize: Iter:   0  Etot: -8.559699076944810  |grad|_K:  0.000e+00  t[s]:     83.87
IonicMinimize: Converged (|grad|_K<1.000000e-04).

#--- Lowdin population analysis ---
# oxidation-state Ga +0.107
# oxidation-state As -0.071


Dumping 'totalE.wfns' ... done
Dumping 'totalE.eigenvals' ... done
Dumping 'totalE.eigStats' ... 
	eMin: -0.306941 at state 0 ( [ +0.000000 +0.000000 +0.000000 ] spin 0 )
	HOMO: +0.180309 at state 0 ( [ +0.000000 +0.000000 +0.000000 ] spin 0 )
	mu  : +0.199126
	LUMO: +0.217248 at state 0 ( [ +0.000000 +0.000000 +0.000000 ] spin 0 )
	eMax: +0.361796 at state 166 ( [ +0.250000 +0.500000 -0.250000 ] spin 0 )
	HOMO-LUMO gap: +0.036939
	Optical gap  : +0.036939 at state 0 ( [ +0.000000 +0.000000 +0.000000 ] spin 0 )
Dumping 'totalE.kPts' ... done
Dumping 'totalE.momenta' ... done

---- dC/dk calculation with dk = 0.0001 a0^-1 and degeneracyThreshold = 1.000000e-06 Eh ----

---- Minimization of quantum number:     0  [ +0.0000000 +0.0000850 +0.0000850 ]  0.001953125 ----
BandDavidson: Iter:   0  Eband: +0.001714177344351
BandDavidson: Iter:   1  Eband: +0.001714177171590  dEband: -1.727609e-10  t[s]:     86.41
BandDavidson: Converged (dEband<1.000000e-08)

---- Minimization of quantum number:     0  [ +0.0000000 -0.0000850 -0.0000850 ]  0.001953125 ----
BandDavidson: Iter:   0  Eband: +0.001714177343684
BandDavidson: Iter:   1  Eband: +0.001714177171314  dEband: -1.723702e-10  t[s]:     86.56
BandDavidson: Converged (dEband<1.000000e-08)

---- Minimization of quantum number:     0  [ +0.0000850 +0.0000000 +0.0000850 ]  0.001953125 ----
BandDavidson: Iter:   0  Eband: +0.001714177344783
BandDavidson: Iter:   1  Eband: +0.001714177171797  dEband: -1.729853e-10  t[s]:     86.73
BandDavidson: Converged (dEband<1.000000e-08)

---- Minimization of quantum number:     0  [ -0.0000850 +0.0000000 -0.0000850 ]  0.001953125 ----
BandDavidson: Iter:   0  Eband: +0.001714177343252
BandDavidson: Iter:   1  Eband: +0.001714177171148  dEband: -1.721040e-10  t[s]:     86.88
BandDavidson: Converged (dEband<1.000000e-08)

---- Minimization of quantum number:     0  [ +0.0000850 +0.0000850 +0.0000000 ]  0.001953125 ----
BandDavidson: Iter:   0  Eband: +0.001714177344348
BandDavidson: Iter:   1  Eband: +0.001714177171632  dEband: -1.727158e-10  t[s]:     87.05
BandDavidson: Converged (dEband<1.000000e-08)

---- Minimization of quantum number:     0  [ -0.0000850 -0.0000850 +0.0000000 ]  0.001953125 ----
BandDavidson: Iter:   0  Eband: +0.001714177343687
BandDavidson: Iter:   1  Eband: +0.001714177171307  dEband: -1.723798e-10  t[s]:     87.21
BandDavidson: Converged (dEband<1.000000e-08)

---- Minimization of quantum number:     1  [ +0.0000000 +0.0000850 +0.1250850 ]  0.001953125 ----
BandDavidson: Iter:   0  Eband: +0.001547830728976
BandDavidson: Iter:   1  Eband: +0.001547830152982  dEband: -5.759937e-10  t[s]:     87.38
BandDavidson: Converged (dEband<1.000000e-08)

---- Minimization of quantum number:     1  [ +0.0000000 -0.0000850 +0.1249150 ]  0.001953125 ----
BandDavidson: Iter:   0  Eband: +0.001548139287467
BandDavidson: Iter:   1  Eband: +0.001548138955234  dEband: -3.322330e-10  t[s]:     87.54
BandDavidson: Converged (dEband<1.000000e-08)

---- Minimization of quantum number:     1  [ +0.0000850 +0.0000000 +0.1250850 ]  0.001953125 ----
BandDavidson: Iter:   0  Eband: +0.001547830727024
BandDavidson: Iter:   1  Eband: +0.001547830168265  dEband: -5.587589e-10  t[s]:     87.71
BandDavidson: Converged (dEband<1.000000e-08)

---- Minimization of quantum number:     1  [ -0.0000850 +0.0000000 +0.1249150 ]  0.001953125 ----
BandDavidson: Iter:   0  Eband: +0.001548139289419
BandDavidson: Iter:   1  Eband: +0.001548138967064  dEband: -3.223555e-10  t[s]:     87.86
BandDavidson: Converged (dEband<1.000000e-08)

---- Minimization of quantum number:     1  [ +0.0000850 +0.0000850 +0.1250000 ]  0.001953125 ----
BandDavidson: Iter:   0  Eband: +0.001548139282157
BandDavidson: Iter:   1  Eband: +0.001548138962670  dEband: -3.194871e-10  t[s]:     88.03
BandDavidson: Converged (dEband<1.000000e-08)

---- Minimization of quantum number:     1  [ -0.0000850 -0.0000850 +0.1250000 ]  0.001953125 ----
BandDavidson: Iter:   0  Eband: +0.001547830734286
BandDavidson: Iter:   1  Eband: +0.001547830175239  dEband: -5.590475e-10  t[s]:     88.19
BandDavidson: Converged (dEband<1.000000e-08)

---- Minimization of quantum number:     2  [ +0.0000000 +0.0000850 +0.2500850 ]  0.001953125 ----
BandDavidson: Iter:   0  Eband: +0.001148491939942
BandDavidson: Iter:   1  Eband: +0.001148491802476  dEband: -1.374660e-10  t[s]:     88.36
BandDavidson: Converged (dEband<1.000000e-08)

---- Minimization of quantum number:     2  [ +0.0000000 -0.0000850 +0.2499150 ]  0.001953125 ----
BandDavidson: Iter:   0  Eband: +0.001148844146576
BandDavidson: Iter:   1  Eband: +0.001148844040705  dEband: -1.058712e-10  t[s]:     88.52
BandDavidson: Converged (dEband<1.000000e-08)

---- Minimization of quantum number:     2  [ +0.0000850 +0.0000000 +0.2500850 ]  0.001953125 ----
BandDavidson: Iter:   0  Eband: +0.001148491944806
BandDavidson: Iter:   1  Eband: +0.001148491803616  dEband: -1.411902e-10  t[s]:     88.69
BandDavidson: Converged (dEband<1.000000e-08)

---- Minimization of quantum number:     2  [ -0.0000850 +0.0000000 +0.2499150 ]  0.001953125 ----
BandDavidson: Iter:   0  Eband: +0.001148844141712
BandDavidson: Iter:   1  Eband: +0.001148844037575  dEband: -1.041374e-10  t[s]:     88.85
BandDavidson: Converged (dEband<1.000000e-08)

---- Minimization of quantum number:     2  [ +0.0000850 +0.0000850 +0.2500000 ]  0.001953125 ----
BandDavidson: Iter:   0  Eband: +0.001148844148913
BandDavidson: Iter:   1  Eband: +0.001148844042381  dEband: -1.065319e-10  t[s]:     89.02
BandDavidson: Converged (dEband<1.000000e-08)

---- Minimization of quantum number:     2  [ -0.0000850 -0.0000850 +0.2500000 ]  0.001953125 ----
BandDavidson: Iter:   0  Eband: +0.001148491937605
BandDavidson: Iter:   1  Eband: +0.001148491802142  dEband: -1.354638e-10  t[s]:     89.17
BandDavidson: Converged (dEband<1.000000e-08)

---- Minimization of quantum number:     3  [ +0.0000000 +0.0000850 +0.3750850 ]  0.001953125 ----
BandDavidson: Iter:   0  Eband: +0.000839192391822
BandDavidson: Iter:   1  Eband: +0.000839192310717  dEband: -8.110515e-11  t[s]:     89.35
BandDavidson: Converged (dEband<1.000000e-08)

---- Minimization of quantum number:     3  [ +0.0000000 -0.0000850 +0.3749150 ]  0.001953125 ----
BandDavidson: Iter:   0  Eband: +0.000839388406135
BandDavidson: Iter:   1  Eband: +0.000839388327893  dEband: -7.824138e-11  t[s]:     89.50
BandDavidson: Converged (dEband<1.000000e-08)

---- Minimization of quantum number:     3  [ +0.0000850 +0.0000000 +0.3750850 ]  0.001953125 ----
BandDavidson: Iter:   0  Eband: +0.000839192390506
BandDavidson: Iter:   1  Eband: +0.000839192310211  dEband: -8.029448e-11  t[s]:     89.67
BandDavidson: Converged (dEband<1.000000e-08)

---- Minimization of quantum number:     3  [ -0.0000850 +0.0000000 +0.3749150 ]  0.001953125 ----
BandDavidson: Iter:   0  Eband: +0.000839388407451
BandDavidson: Iter:   1  Eband: +0.000839388328212  dEband: -7.923834e-11  t[s]:     89.83
BandDavidson: Converged (dEband<1.000000e-08)

---- Minimization of quantum number:     3  [ +0.0000850 +0.0000850 +0.3750000 ]  0.001953125 ----
BandDavidson: Iter:   0  Eband: +0.000839388405969
BandDavidson: Iter:   1  Eband: +0.000839388327724  dEband: -7.824495e-11  t[s]:     90.00
BandDavidson: Converged (dEband<1.000000e-08)

---- Minimization of quantum number:     3  [ -0.0000850 -0.0000850 +0.3750000 ]  0.001953125 ----
BandDavidson: Iter:   0  Eband: +0.000839192391987
BandDavidson: Iter:   1  Eband: +0.000839192310541  dEband: -8.144608e-11  t[s]:     90.16
BandDavidson: Converged (dEband<1.000000e-08)

---- Minimization of quantum number:     4  [ +0.0000000 +0.0000850 +0.5000850 ]  0.001953125 ----
BandDavidson: Iter:   0  Eband: +0.000729928331263
BandDavidson: Iter:   1  Eband: +0.000729928252759  dEband: -7.850359e-11  t[s]:     90.33
BandDavidson: Converged (dEband<1.000000e-08)

---- Minimization of quantum number:     4  [ +0.0000000 -0.0000850 +0.4999150 ]  0.001953125 ----
BandDavidson: Iter:   0  Eband: +0.000729928331138
BandDavidson: Iter:   1  Eband: +0.000729928252735  dEband: -7.840220e-11  t[s]:     90.49
BandDavidson: Converged (dEband<1.000000e-08)

---- Minimization of quantum number:     4  [ +0.0000850 +0.0000000 +0.5000850 ]  0.001953125 ----
BandDavidson: Iter:   0  Eband: +0.000729928330762
BandDavidson: Iter:   1  Eband: +0.000729928252850  dEband: -7.791224e-11  t[s]:     90.66
BandDavidson: Converged (dEband<1.000000e-08)

---- Minimization of quantum number:     4  [ -0.0000850 +0.0000000 +0.4999150 ]  0.001953125 ----
BandDavidson: Iter:   0  Eband: +0.000729928331638
BandDavidson: Iter:   1  Eband: +0.000729928253009  dEband: -7.862897e-11  t[s]:     90.81
BandDavidson: Converged (dEband<1.000000e-08)

---- Minimization of quantum number:     4  [ +0.0000850 +0.0000850 +0.5000000 ]  0.001953125 ----
BandDavidson: Iter:   0  Eband: +0.000729928330878
BandDavidson: Iter:   1  Eband: +0.000729928252744  dEband: -7.813398e-11  t[s]:     90.98
BandDavidson: Converged (dEband<1.000000e-08)

---- Minimization of quantum number:     4  [ -0.0000850 -0.0000850 +0.5000000 ]  0.001953125 ----
BandDavidson: Iter:   0  Eband: +0.000729928331523
BandDavidson: Iter:   1  Eband: +0.000729928252940  dEband: -7.858290e-11  t[s]:     91.14
BandDavidson: Converged (dEband<1.000000e-08)

---- Minimization of quantum number:     5  [ +0.0000000 +0.0000850 -0.3749150 ]  0.001953125 ----
BandDavidson: Iter:   0  Eband: +0.000839388407482
BandDavidson: Iter:   1  Eband: +0.000839388328419  dEband: -7.906240e-11  t[s]:     91.31
BandDavidson: Converged (dEband<1.000000e-08)

---- Minimization of quantum number:     5  [ +0.0000000 -0.0000850 -0.3750850 ]  0.001953125 ----
BandDavidson: Iter:   0  Eband: +0.000839192396525
BandDavidson: Iter:   1  Eband: +0.000839192312749  dEband: -8.377587e-11  t[s]:     91.47
BandDavidson: Converged (dEband<1.000000e-08)

---- Minimization of quantum number:     5  [ +0.0000850 +0.0000000 -0.3749150 ]  0.001953125 ----
BandDavidson: Iter:   0  Eband: +0.000839388409988
BandDavidson: Iter:   1  Eband: +0.000839388328855  dEband: -8.113309e-11  t[s]:     91.64
BandDavidson: Converged (dEband<1.000000e-08)

---- Minimization of quantum number:     5  [ -0.0000850 +0.0000000 -0.3750850 ]  0.001953125 ----
BandDavidson: Iter:   0  Eband: +0.000839192394019
BandDavidson: Iter:   1  Eband: +0.000839192311306  dEband: -8.271299e-11  t[s]:     91.79
BandDavidson: Converged (dEband<1.000000e-08)

---- Minimization of quantum number:     5  [ +0.0000850 +0.0000850 -0.3750000 ]  0.001953125 ----
BandDavidson: Iter:   0  Eband: +0.000839192395885
BandDavidson: Iter:   1  Eband: +0.000839192312595  dEband: -8.328977e-11  t[s]:     91.96
BandDavidson: Converged (dEband<1.000000e-08)

---- Minimization of quantum number:     5  [ -0.0000850 -0.0000850 -0.3750000 ]  0.001953125 ----
BandDavidson: Iter:   0  Eband: +0.000839388408122
BandDavidson: Iter:   1  Eband: +0.000839388328763  dEband: -7.935843e-11  t[s]:     92.12
BandDavidson: Converged (dEband<1.000000e-08)

---- Minimization of quantum number:     6  [ +0.0000000 +0.0000850 -0.2499150 ]  0.001953125 ----
BandDavidson: Iter:   0  Eband: +0.001148844178978
BandDavidson: Iter:   1  Eband: +0.001148844062873  dEband: -1.161051e-10  t[s]:     92.29
BandDavidson: Converged (dEband<1.000000e-08)

---- Minimization of quantum number:     6  [ +0.0000000 -0.0000850 -0.2500850 ]  0.001953125 ----
BandDavidson: Iter:   0  Eband: +0.001148491996895
BandDavidson: Iter:   1  Eband: +0.001148491843739  dEband: -1.531562e-10  t[s]:     92.45
BandDavidson: Converged (dEband<1.000000e-08)

---- Minimization of quantum number:     6  [ +0.0000850 +0.0000000 -0.2499150 ]  0.001953125 ----
BandDavidson: Iter:   0  Eband: +0.001148844177161
BandDavidson: Iter:   1  Eband: +0.001148844062321  dEband: -1.148407e-10  t[s]:     92.62
BandDavidson: Converged (dEband<1.000000e-08)

---- Minimization of quantum number:     6  [ -0.0000850 +0.0000000 -0.2500850 ]  0.001953125 ----
BandDavidson: Iter:   0  Eband: +0.001148491998712
BandDavidson: Iter:   1  Eband: +0.001148491845173  dEband: -1.535389e-10  t[s]:     92.77
BandDavidson: Converged (dEband<1.000000e-08)

---- Minimization of quantum number:     6  [ +0.0000850 +0.0000850 -0.2500000 ]  0.001953125 ----
BandDavidson: Iter:   0  Eband: +0.001148491996238
BandDavidson: Iter:   1  Eband: +0.001148491843079  dEband: -1.531586e-10  t[s]:     92.94
BandDavidson: Converged (dEband<1.000000e-08)

---- Minimization of quantum number:     6  [ -0.0000850 -0.0000850 -0.2500000 ]  0.001953125 ----
BandDavidson: Iter:   0  Eband: +0.001148844179636
BandDavidson: Iter:   1  Eband: +0.001148844063018  dEband: -1.166170e-10  t[s]:     93.10
BandDavidson: Converged (dEband<1.000000e-08)

---- Minimization of quantum number:     7  [ +0.0000000 +0.0000850 -0.1249150 ]  0.001953125 ----
BandDavidson: Iter:   0  Eband: +0.001548139276362
BandDavidson: Iter:   1  Eband: +0.001548138967014  dEband: -3.093488e-10  t[s]:     93.27
BandDavidson: Converged (dEband<1.000000e-08)

---- Minimization of quantum number:     7  [ +0.0000000 -0.0000850 -0.1250850 ]  0.001953125 ----
BandDavidson: Iter:   0  Eband: +0.001547830702774
BandDavidson: Iter:   1  Eband: +0.001547830175281  dEband: -5.274928e-10  t[s]:     93.43
BandDavidson: Converged (dEband<1.000000e-08)

---- Minimization of quantum number:     7  [ +0.0000850 +0.0000000 -0.1249150 ]  0.001953125 ----
BandDavidson: Iter:   0  Eband: +0.001548139314294
BandDavidson: Iter:   1  Eband: +0.001548138992779  dEband: -3.215156e-10  t[s]:     93.60
BandDavidson: Converged (dEband<1.000000e-08)

---- Minimization of quantum number:     7  [ -0.0000850 +0.0000000 -0.1250850 ]  0.001953125 ----
BandDavidson: Iter:   0  Eband: +0.001547830664842
BandDavidson: Iter:   1  Eband: +0.001547830143901  dEband: -5.209406e-10  t[s]:     93.75
BandDavidson: Converged (dEband<1.000000e-08)

---- Minimization of quantum number:     7  [ +0.0000850 +0.0000850 -0.1250000 ]  0.001953125 ----
BandDavidson: Iter:   0  Eband: +0.001547830717078
BandDavidson: Iter:   1  Eband: +0.001547830178429  dEband: -5.386490e-10  t[s]:     93.92
BandDavidson: Converged (dEband<1.000000e-08)

---- Minimization of quantum number:     7  [ -0.0000850 -0.0000850 -0.1250000 ]  0.001953125 ----
BandDavidson: Iter:   0  Eband: +0.001548139262058
BandDavidson: Iter:   1  Eband: +0.001548138951705  dEband: -3.103534e-10  t[s]:     94.08
BandDavidson: Converged (dEband<1.000000e-08)

---- Minimization of quantum number:     8  [ +0.0000000 +0.1250850 +0.0000850 ]  0.001953125 ----
BandDavidson: Iter:   0  Eband: +0.001547830792678
BandDavidson: Iter:   1  Eband: +0.001547830184689  dEband: -6.079889e-10  t[s]:     94.25
BandDavidson: Converged (dEband<1.000000e-08)

---- Minimization of quantum number:     8  [ +0.0000000 +0.1249150 -0.0000850 ]  0.001953125 ----
BandDavidson: Iter:   0  Eband: +0.001548139328625
BandDavidson: Iter:   1  Eband: +0.001548138973223  dEband: -3.554015e-10  t[s]:     94.41
BandDavidson: Converged (dEband<1.000000e-08)

---- Minimization of quantum number:     8  [ +0.0000850 +0.1250000 +0.0000850 ]  0.001953125 ----
BandDavidson: Iter:   0  Eband: +0.001548139332195
BandDavidson: Iter:   1  Eband: +0.001548138991548  dEband: -3.406471e-10  t[s]:     94.57
BandDavidson: Converged (dEband<1.000000e-08)

---- Minimization of quantum number:     8  [ -0.0000850 +0.1250000 -0.0000850 ]  0.001953125 ----
BandDavidson: Iter:   0  Eband: +0.001547830789108
BandDavidson: Iter:   1  Eband: +0.001547830209038  dEband: -5.800699e-10  t[s]:     94.73
BandDavidson: Converged (dEband<1.000000e-08)

---- Minimization of quantum number:     8  [ +0.0000850 +0.1250850 +0.0000000 ]  0.001953125 ----
BandDavidson: Iter:   0  Eband: +0.001547830791169
BandDavidson: Iter:   1  Eband: +0.001547830217966  dEband: -5.732027e-10  t[s]:     94.90
BandDavidson: Converged (dEband<1.000000e-08)

---- Minimization of quantum number:     8  [ -0.0000850 +0.1249150 +0.0000000 ]  0.001953125 ----
BandDavidson: Iter:   0  Eband: +0.001548139330134
BandDavidson: Iter:   1  Eband: +0.001548138997657  dEband: -3.324768e-10  t[s]:     95.06
BandDavidson: Converged (dEband<1.000000e-08)

---- Minimization of quantum number:     9  [ +0.0000000 +0.1250850 +0.1250850 ]  0.001953125 ----
BandDavidson: Iter:   0  Eband: +0.001540676363794
BandDavidson: Iter:   1  Eband: +0.001540669059295  dEband: -7.304498e-09  t[s]:     95.23
BandDavidson: Converged (dEband<1.000000e-08)

---- Minimization of quantum number:     9  [ +0.0000000 +0.1249150 +0.1249150 ]  0.001953125 ----
BandDavidson: Iter:   0  Eband: +0.001541148250204
BandDavidson: Iter:   1  Eband: +0.001541141681278  dEband: -6.568926e-09  t[s]:     95.38
BandDavidson: Converged (dEband<1.000000e-08)

---- Minimization of quantum number:     9  [ +0.0000850 +0.1250000 +0.1250850 ]  0.001953125 ----
BandDavidson: Iter:   0  Eband: +0.001540912355232
BandDavidson: Iter:   1  Eband: +0.001540893675601  dEband: -1.867963e-08  t[s]:     95.55
BandDavidson: Iter:   2  Eband: +0.001540880958494  dEband: -1.271711e-08  t[s]:     95.61
BandDavidson: Iter:   3  Eband: +0.001540878070388  dEband: -2.888106e-09  t[s]:     95.64
BandDavidson: Converged (dEband<1.000000e-08)

---- Minimization of quantum number:     9  [ -0.0000850 +0.1250000 +0.1249150 ]  0.001953125 ----
BandDavidson: Iter:   0  Eband: +0.001540912258398
BandDavidson: Iter:   1  Eband: +0.001540893703569  dEband: -1.855483e-08  t[s]:     95.80
BandDavidson: Iter:   2  Eband: +0.001540880989095  dEband: -1.271447e-08  t[s]:     95.86
BandDavidson: Iter:   3  Eband: +0.001540878088750  dEband: -2.900345e-09  t[s]:     95.89
BandDavidson: Converged (dEband<1.000000e-08)

---- Minimization of quantum number:     9  [ +0.0000850 +0.1250850 +0.1250000 ]  0.001953125 ----
BandDavidson: Iter:   0  Eband: +0.001540912359947
BandDavidson: Iter:   1  Eband: +0.001540893658116  dEband: -1.870183e-08  t[s]:     96.06
BandDavidson: Iter:   2  Eband: +0.001540881036198  dEband: -1.262192e-08  t[s]:     96.11
BandDavidson: Iter:   3  Eband: +0.001540878124140  dEband: -2.912058e-09  t[s]:     96.15
BandDavidson: Converged (dEband<1.000000e-08)

---- Minimization of quantum number:     9  [ -0.0000850 +0.1249150 +0.1250000 ]  0.001953125 ----
BandDavidson: Iter:   0  Eband: +0.001540912253683
BandDavidson: Iter:   1  Eband: +0.001540893751233  dEband: -1.850245e-08  t[s]:     96.30
BandDavidson: Iter:   2  Eband: +0.001540881167218  dEband: -1.258402e-08  t[s]:     96.36
BandDavidson: Iter:   3  Eband: +0.001540878307975  dEband: -2.859242e-09  t[s]:     96.39
BandDavidson: Converged (dEband<1.000000e-08)

---- Minimization of quantum number:    10  [ +0.0000000 +0.1250850 +0.2500850 ]  0.001953125 ----
BandDavidson: Iter:   0  Eband: +0.001231171996402
BandDavidson: Iter:   1  Eband: +0.001231160398532  dEband: -1.159787e-08  t[s]:     96.56
BandDavidson: Iter:   2  Eband: +0.001231152660968  dEband: -7.737563e-09  t[s]:     96.59
BandDavidson: Converged (dEband<1.000000e-08)

---- Minimization of quantum number:    10  [ +0.0000000 +0.1249150 +0.2499150 ]  0.001953125 ----
BandDavidson: Iter:   0  Eband: +0.001231782027916
BandDavidson: Iter:   1  Eband: +0.001231771441190  dEband: -1.058673e-08  t[s]:     96.75
BandDavidson: Iter:   2  Eband: +0.001231764291069  dEband: -7.150121e-09  t[s]:     96.78
BandDavidson: Converged (dEband<1.000000e-08)

---- Minimization of quantum number:    10  [ +0.0000850 +0.1250000 +0.2500850 ]  0.001953125 ----
BandDavidson: Iter:   0  Eband: +0.001231376892700
BandDavidson: Iter:   1  Eband: +0.001231352190481  dEband: -2.470222e-08  t[s]:     96.95
BandDavidson: Iter:   2  Eband: +0.001231335877895  dEband: -1.631259e-08  t[s]:     96.98
BandDavidson: Iter:   3  Eband: +0.001231327342397  dEband: -8.535497e-09  t[s]:     97.01
BandDavidson: Converged (dEband<1.000000e-08)

---- Minimization of quantum number:    10  [ -0.0000850 +0.1250000 +0.2499150 ]  0.001953125 ----
BandDavidson: Iter:   0  Eband: +0.001231577131025
BandDavidson: Iter:   1  Eband: +0.001231551188608  dEband: -2.594242e-08  t[s]:     97.16
BandDavidson: Iter:   2  Eband: +0.001231534120075  dEband: -1.706853e-08  t[s]:     97.20
BandDavidson: Iter:   3  Eband: +0.001231525225076  dEband: -8.894999e-09  t[s]:     97.23
BandDavidson: Converged (dEband<1.000000e-08)

---- Minimization of quantum number:    10  [ +0.0000850 +0.1250850 +0.2500000 ]  0.001953125 ----
BandDavidson: Iter:   0  Eband: +0.001231576901339
BandDavidson: Iter:   1  Eband: +0.001231551888704  dEband: -2.501264e-08  t[s]:     97.40
BandDavidson: Iter:   2  Eband: +0.001231535242850  dEband: -1.664585e-08  t[s]:     97.43
BandDavidson: Iter:   3  Eband: +0.001231526464552  dEband: -8.778298e-09  t[s]:     97.46
BandDavidson: Converged (dEband<1.000000e-08)

---- Minimization of quantum number:    10  [ -0.0000850 +0.1249150 +0.2500000 ]  0.001953125 ----
BandDavidson: Iter:   0  Eband: +0.001231377122386
BandDavidson: Iter:   1  Eband: +0.001231353081093  dEband: -2.404129e-08  t[s]:     97.61
BandDavidson: Iter:   2  Eband: +0.001231337037456  dEband: -1.604364e-08  t[s]:     97.64
BandDavidson: Iter:   3  Eband: +0.001231328573451  dEband: -8.464005e-09  t[s]:     97.67
BandDavidson: Converged (dEband<1.000000e-08)

---- Minimization of quantum number:    11  [ +0.0000000 +0.1250850 +0.3750850 ]  0.001953125 ----
BandDavidson: Iter:   0  Eband: +0.000893989871765
BandDavidson: Iter:   1  Eband: +0.000893987608818  dEband: -2.262946e-09  t[s]:     97.84
BandDavidson: Converged (dEband<1.000000e-08)

---- Minimization of quantum number:    11  [ +0.0000000 +0.1249150 +0.3749150 ]  0.001953125 ----
BandDavidson: Iter:   0  Eband: +0.000894389610488
BandDavidson: Iter:   1  Eband: +0.000894388089439  dEband: -1.521049e-09  t[s]:     98.00
BandDavidson: Converged (dEband<1.000000e-08)

---- Minimization of quantum number:    11  [ +0.0000850 +0.1250000 +0.3750850 ]  0.001953125 ----
BandDavidson: Iter:   0  Eband: +0.000894104816230
BandDavidson: Iter:   1  Eband: +0.000894102386979  dEband: -2.429251e-09  t[s]:     98.17
BandDavidson: Converged (dEband<1.000000e-08)

---- Minimization of quantum number:    11  [ -0.0000850 +0.1250000 +0.3749150 ]  0.001953125 ----
BandDavidson: Iter:   0  Eband: +0.000894274665884
BandDavidson: Iter:   1  Eband: +0.000894271696104  dEband: -2.969781e-09  t[s]:     98.33
BandDavidson: Converged (dEband<1.000000e-08)

---- Minimization of quantum number:    11  [ +0.0000850 +0.1250850 +0.3750000 ]  0.001953125 ----
BandDavidson: Iter:   0  Eband: +0.000894274749987
BandDavidson: Iter:   1  Eband: +0.000894271674163  dEband: -3.075824e-09  t[s]:     98.50
BandDavidson: Converged (dEband<1.000000e-08)

---- Minimization of quantum number:    11  [ -0.0000850 +0.1249150 +0.3750000 ]  0.001953125 ----
BandDavidson: Iter:   0  Eband: +0.000894104732126
BandDavidson: Iter:   1  Eband: +0.000894102290321  dEband: -2.441806e-09  t[s]:     98.65
BandDavidson: Converged (dEband<1.000000e-08)

---- Minimization of quantum number:    12  [ +0.0000000 +0.1250850 +0.5000850 ]  0.001953125 ----
BandDavidson: Iter:   0  Eband: +0.000720808773446
BandDavidson: Iter:   1  Eband: +0.000720807910764  dEband: -8.626819e-10  t[s]:     98.82
BandDavidson: Converged (dEband<1.000000e-08)

---- Minimization of quantum number:    12  [ +0.0000000 +0.1249150 +0.4999150 ]  0.001953125 ----
BandDavidson: Iter:   0  Eband: +0.000720980952500
BandDavidson: Iter:   1  Eband: +0.000720980513606  dEband: -4.388936e-10  t[s]:     98.98
BandDavidson: Converged (dEband<1.000000e-08)

---- Minimization of quantum number:    12  [ +0.0000850 +0.1250000 +0.5000850 ]  0.001953125 ----
BandDavidson: Iter:   0  Eband: +0.000720892016228
BandDavidson: Iter:   1  Eband: +0.000720891349037  dEband: -6.671912e-10  t[s]:     99.15
BandDavidson: Converged (dEband<1.000000e-08)

---- Minimization of quantum number:    12  [ -0.0000850 +0.1250000 +0.4999150 ]  0.001953125 ----
BandDavidson: Iter:   0  Eband: +0.000720897709606
BandDavidson: Iter:   1  Eband: +0.000720896797761  dEband: -9.118441e-10  t[s]:     99.31
BandDavidson: Converged (dEband<1.000000e-08)

---- Minimization of quantum number:    12  [ +0.0000850 +0.1250850 +0.5000000 ]  0.001953125 ----
BandDavidson: Iter:   0  Eband: +0.000720897759658
BandDavidson: Iter:   1  Eband: +0.000720896813971  dEband: -9.456866e-10  t[s]:     99.48
BandDavidson: Converged (dEband<1.000000e-08)

---- Minimization of quantum number:    12  [ -0.0000850 +0.1249150 +0.5000000 ]  0.001953125 ----
BandDavidson: Iter:   0  Eband: +0.000720891966176
BandDavidson: Iter:   1  Eband: +0.000720891317244  dEband: -6.489314e-10  t[s]:     99.63
BandDavidson: Converged (dEband<1.000000e-08)

---- Minimization of quantum number:    13  [ +0.0000000 +0.1250850 -0.3749150 ]  0.001953125 ----
BandDavidson: Iter:   0  Eband: +0.000763918861041
BandDavidson: Iter:   1  Eband: +0.000763918634370  dEband: -2.266712e-10  t[s]:     99.80
BandDavidson: Converged (dEband<1.000000e-08)

---- Minimization of quantum number:    13  [ +0.0000000 +0.1249150 -0.3750850 ]  0.001953125 ----
BandDavidson: Iter:   0  Eband: +0.000763856964164
BandDavidson: Iter:   1  Eband: +0.000763856849667  dEband: -1.144972e-10  t[s]:     99.96
BandDavidson: Converged (dEband<1.000000e-08)

---- Minimization of quantum number:    13  [ +0.0000850 +0.1250000 -0.3749150 ]  0.001953125 ----
BandDavidson: Iter:   0  Eband: +0.000763975666272
BandDavidson: Iter:   1  Eband: +0.000763975511089  dEband: -1.551832e-10  t[s]:    100.13
BandDavidson: Converged (dEband<1.000000e-08)

---- Minimization of quantum number:    13  [ -0.0000850 +0.1250000 -0.3750850 ]  0.001953125 ----
BandDavidson: Iter:   0  Eband: +0.000763800158724
BandDavidson: Iter:   1  Eband: +0.000763799943048  dEband: -2.156759e-10  t[s]:    100.29
BandDavidson: Converged (dEband<1.000000e-08)

---- Minimization of quantum number:    13  [ +0.0000850 +0.1250850 -0.3750000 ]  0.001953125 ----
BandDavidson: Iter:   0  Eband: +0.000763800193215
BandDavidson: Iter:   1  Eband: +0.000763799958083  dEband: -2.351321e-10  t[s]:    100.46
BandDavidson: Converged (dEband<1.000000e-08)

---- Minimization of quantum number:    13  [ -0.0000850 +0.1249150 -0.3750000 ]  0.001953125 ----
BandDavidson: Iter:   0  Eband: +0.000763975631781
BandDavidson: Iter:   1  Eband: +0.000763975494216  dEband: -1.375653e-10  t[s]:    100.62
BandDavidson: Converged (dEband<1.000000e-08)

---- Minimization of quantum number:    14  [ +0.0000000 +0.1250850 -0.2499150 ]  0.001953125 ----
BandDavidson: Iter:   0  Eband: +0.001011555440483
BandDavidson: Iter:   1  Eband: +0.001011555306301  dEband: -1.341817e-10  t[s]:    100.79
BandDavidson: Converged (dEband<1.000000e-08)

---- Minimization of quantum number:    14  [ +0.0000000 +0.1249150 -0.2500850 ]  0.001953125 ----
BandDavidson: Iter:   0  Eband: +0.001011329420204
BandDavidson: Iter:   1  Eband: +0.001011329235746  dEband: -1.844582e-10  t[s]:    100.95
BandDavidson: Converged (dEband<1.000000e-08)

---- Minimization of quantum number:    14  [ +0.0000850 +0.1250000 -0.2499150 ]  0.001953125 ----
BandDavidson: Iter:   0  Eband: +0.001011609763415
BandDavidson: Iter:   1  Eband: +0.001011609622523  dEband: -1.408917e-10  t[s]:    101.12
BandDavidson: Converged (dEband<1.000000e-08)

---- Minimization of quantum number:    14  [ -0.0000850 +0.1250000 -0.2500850 ]  0.001953125 ----
BandDavidson: Iter:   0  Eband: +0.001011275096961
BandDavidson: Iter:   1  Eband: +0.001011274947531  dEband: -1.494300e-10  t[s]:    101.27
BandDavidson: Converged (dEband<1.000000e-08)

---- Minimization of quantum number:    14  [ +0.0000850 +0.1250850 -0.2500000 ]  0.001953125 ----
BandDavidson: Iter:   0  Eband: +0.001011275101905
BandDavidson: Iter:   1  Eband: +0.001011274948826  dEband: -1.530794e-10  t[s]:    101.44
BandDavidson: Converged (dEband<1.000000e-08)

---- Minimization of quantum number:    14  [ -0.0000850 +0.1249150 -0.2500000 ]  0.001953125 ----
BandDavidson: Iter:   0  Eband: +0.001011609758471
BandDavidson: Iter:   1  Eband: +0.001011609618455  dEband: -1.400162e-10  t[s]:    101.60
BandDavidson: Converged (dEband<1.000000e-08)

---- Minimization of quantum number:    15  [ +0.0000000 +0.1250850 -0.1249150 ]  0.001953125 ----
BandDavidson: Iter:   0  Eband: +0.001353186223189
BandDavidson: Iter:   1  Eband: +0.001353185998196  dEband: -2.249937e-10  t[s]:    101.77
BandDavidson: Converged (dEband<1.000000e-08)

---- Minimization of quantum number:    15  [ +0.0000000 +0.1249150 -0.1250850 ]  0.001953125 ----
BandDavidson: Iter:   0  Eband: +0.001353186221207
BandDavidson: Iter:   1  Eband: +0.001353185999194  dEband: -2.220134e-10  t[s]:    101.93
BandDavidson: Converged (dEband<1.000000e-08)

---- Minimization of quantum number:    15  [ +0.0000850 +0.1250000 -0.1249150 ]  0.001953125 ----
BandDavidson: Iter:   0  Eband: +0.001353384347990
BandDavidson: Iter:   1  Eband: +0.001353384241638  dEband: -1.063521e-10  t[s]:    102.10
BandDavidson: Converged (dEband<1.000000e-08)

---- Minimization of quantum number:    15  [ -0.0000850 +0.1250000 -0.1250850 ]  0.001953125 ----
BandDavidson: Iter:   0  Eband: +0.001352988096073
BandDavidson: Iter:   1  Eband: +0.001352987906266  dEband: -1.898071e-10  t[s]:    102.25
BandDavidson: Converged (dEband<1.000000e-08)

---- Minimization of quantum number:    15  [ +0.0000850 +0.1250850 -0.1250000 ]  0.001953125 ----
BandDavidson: Iter:   0  Eband: +0.001352988083457
BandDavidson: Iter:   1  Eband: +0.001352987895617  dEband: -1.878395e-10  t[s]:    102.42
BandDavidson: Converged (dEband<1.000000e-08)

---- Minimization of quantum number:    15  [ -0.0000850 +0.1249150 -0.1250000 ]  0.001953125 ----
BandDavidson: Iter:   0  Eband: +0.001353384360606
BandDavidson: Iter:   1  Eband: +0.001353384247046  dEband: -1.135607e-10  t[s]:    102.58
BandDavidson: Converged (dEband<1.000000e-08)

---- dC/dk complete ----

Dumping 'totalE.BerryCurvature' ... done.
Dumping 'totalE.R' ... done.
End date and time: Tue Apr 30 16:14:13 2024  (Duration: 0-0:01:50.00)
Done!

PROFILER:        ColumnBundle::randomize     0.000262 +/-     0.000006 s,   16 calls,      0.004192 s total
PROFILER:                     diagouterI     0.009173 +/-     0.001682 s, 1328 calls,     12.181593 s total
PROFILER:              EdensityAndVscloc     0.010042 +/-     0.008533 s,   44 calls,      0.441839 s total
PROFILER:                     EnlAndGrad     0.000032 +/-     0.000014 s, 2526 calls,      0.081688 s total
PROFILER:            ExCorrCommunication     0.001670 +/-     0.002585 s,  132 calls,      0.220403 s total
PROFILER:               ExCorrFunctional     0.000700 +/-     0.000689 s,   80 calls,      0.056002 s total
PROFILER:                    ExCorrTotal     0.008340 +/-     0.004273 s,   44 calls,      0.366957 s total
PROFILER:                   Idag_DiagV_I     0.016120 +/-     0.003680 s, 3852 calls,     62.093304 s total
PROFILER:                    inv(matrix)     0.000036 +/-     0.000041 s,   17 calls,      0.000610 s total
PROFILER:            matrix::diagonalize     0.000046 +/-     0.000077 s, 2785 calls,      0.127686 s total
PROFILER:                    matrix::set     0.000000 +/-     0.000001 s, 16291 calls,      0.004557 s total
PROFILER:            orthoMatrix(matrix)     0.000153 +/-     0.003000 s,  559 calls,      0.085540 s total
PROFILER:     RadialFunctionR::transform     0.005453 +/-     0.024708 s,   32 calls,      0.174500 s total
PROFILER:                    reduceKmesh     0.000021 +/-     0.000000 s,    1 calls,      0.000021 s total
PROFILER:               WavefunctionDrag     0.076823 +/-     0.000000 s,    1 calls,      0.076823 s total
PROFILER:                            Y*M     0.000127 +/-     0.000076 s, 5146 calls,      0.654875 s total
PROFILER:                          Y1^Y2     0.000146 +/-     0.000059 s, 4714 calls,      0.689097 s total

MEMUSAGE:                   ColumnBundle     0.010790 GB
MEMUSAGE:        complexScalarFieldTilde     0.000488 GB
MEMUSAGE:                    IndexArrays     0.007774 GB
MEMUSAGE:                         matrix     0.001105 GB
MEMUSAGE:                           misc     0.000977 GB
MEMUSAGE:                     RealKernel     0.000259 GB
MEMUSAGE:                    ScalarField     0.013428 GB
MEMUSAGE:               ScalarFieldTilde     0.002075 GB
MEMUSAGE:                          Total     0.028017 GB
